-- Этот файл был сгенерирован тНавигатор v23.4-5689-g1082f6c1238f.
-- Copyright (C) Рок Флоу Динамикс 2005-2024.
-- Все права защищены.

--Name of the 3D-grid in Model Designer: DynamicModel 

SPECGRID
 69 50 75 /
INCLUDE
'INCLUDE/DynamicModel.grdecl' /


INIT

--Name of the property in Model Designer: ACTNUM 
INCLUDE
'INCLUDE/DynamicModel_ACTNUM.inc' /

--Name of the property in Model Designer: PERMX 
INCLUDE
'INCLUDE/DynamicModel_PERMX.inc' /

--Name of the property in Model Designer: PERMY 
INCLUDE
'INCLUDE/DynamicModel_PERMY.inc' /

--Name of the property in Model Designer: PERMZ 
INCLUDE
'INCLUDE/DynamicModel_PERMZ.inc' /

--Name of the property in Model Designer: PORO 
INCLUDE
'INCLUDE/DynamicModel_PORO.inc' /

